# vtk DataFile Version 3.0
ANL NE devision neutronics export routine 08-2006
ASCII
DATASET UNSTRUCTURED_GRID
POINTS          567 float
 0.00000E+00  0.00000E+00  0.00000E+00
 0.00000E+00  0.00000E+00  3.75000E+00
 0.00000E+00  0.00000E+00  7.50000E+00
 0.00000E+00  0.00000E+00  1.12500E+01
 0.00000E+00  0.00000E+00  1.50000E+01
 0.00000E+00  0.00000E+00  2.00000E+01
 0.00000E+00  0.00000E+00  2.50000E+01
 0.00000E+00  3.75000E+00  0.00000E+00
 0.00000E+00  3.75000E+00  3.75000E+00
 0.00000E+00  3.75000E+00  7.50000E+00
 0.00000E+00  3.75000E+00  1.12500E+01
 0.00000E+00  3.75000E+00  1.50000E+01
 0.00000E+00  3.75000E+00  2.00000E+01
 0.00000E+00  3.75000E+00  2.50000E+01
 0.00000E+00  7.50000E+00  0.00000E+00
 0.00000E+00  7.50000E+00  3.75000E+00
 0.00000E+00  7.50000E+00  7.50000E+00
 0.00000E+00  7.50000E+00  1.12500E+01
 0.00000E+00  7.50000E+00  1.50000E+01
 0.00000E+00  7.50000E+00  2.00000E+01
 0.00000E+00  7.50000E+00  2.50000E+01
 0.00000E+00  1.12500E+01  0.00000E+00
 0.00000E+00  1.12500E+01  3.75000E+00
 0.00000E+00  1.12500E+01  7.50000E+00
 0.00000E+00  1.12500E+01  1.12500E+01
 0.00000E+00  1.12500E+01  1.50000E+01
 0.00000E+00  1.12500E+01  2.00000E+01
 0.00000E+00  1.12500E+01  2.50000E+01
 0.00000E+00  1.50000E+01  0.00000E+00
 0.00000E+00  1.50000E+01  3.75000E+00
 0.00000E+00  1.50000E+01  7.50000E+00
 0.00000E+00  1.50000E+01  1.12500E+01
 0.00000E+00  1.50000E+01  1.50000E+01
 0.00000E+00  1.50000E+01  2.00000E+01
 0.00000E+00  1.50000E+01  2.50000E+01
 0.00000E+00  1.75000E+01  0.00000E+00
 0.00000E+00  1.75000E+01  3.75000E+00
 0.00000E+00  1.75000E+01  7.50000E+00
 0.00000E+00  1.75000E+01  1.12500E+01
 0.00000E+00  1.75000E+01  1.50000E+01
 0.00000E+00  1.75000E+01  2.00000E+01
 0.00000E+00  1.75000E+01  2.50000E+01
 0.00000E+00  2.00000E+01  0.00000E+00
 0.00000E+00  2.00000E+01  3.75000E+00
 0.00000E+00  2.00000E+01  7.50000E+00
 0.00000E+00  2.00000E+01  1.12500E+01
 0.00000E+00  2.00000E+01  1.50000E+01
 0.00000E+00  2.00000E+01  2.00000E+01
 0.00000E+00  2.00000E+01  2.50000E+01
 0.00000E+00  2.25000E+01  0.00000E+00
 0.00000E+00  2.25000E+01  3.75000E+00
 0.00000E+00  2.25000E+01  7.50000E+00
 0.00000E+00  2.25000E+01  1.12500E+01
 0.00000E+00  2.25000E+01  1.50000E+01
 0.00000E+00  2.25000E+01  2.00000E+01
 0.00000E+00  2.25000E+01  2.50000E+01
 0.00000E+00  2.50000E+01  0.00000E+00
 0.00000E+00  2.50000E+01  3.75000E+00
 0.00000E+00  2.50000E+01  7.50000E+00
 0.00000E+00  2.50000E+01  1.12500E+01
 0.00000E+00  2.50000E+01  1.50000E+01
 0.00000E+00  2.50000E+01  2.00000E+01
 0.00000E+00  2.50000E+01  2.50000E+01
 3.75000E+00  0.00000E+00  0.00000E+00
 3.75000E+00  0.00000E+00  3.75000E+00
 3.75000E+00  0.00000E+00  7.50000E+00
 3.75000E+00  0.00000E+00  1.12500E+01
 3.75000E+00  0.00000E+00  1.50000E+01
 3.75000E+00  0.00000E+00  2.00000E+01
 3.75000E+00  0.00000E+00  2.50000E+01
 3.75000E+00  3.75000E+00  0.00000E+00
 3.75000E+00  3.75000E+00  3.75000E+00
 3.75000E+00  3.75000E+00  7.50000E+00
 3.75000E+00  3.75000E+00  1.12500E+01
 3.75000E+00  3.75000E+00  1.50000E+01
 3.75000E+00  3.75000E+00  2.00000E+01
 3.75000E+00  3.75000E+00  2.50000E+01
 3.75000E+00  7.50000E+00  0.00000E+00
 3.75000E+00  7.50000E+00  3.75000E+00
 3.75000E+00  7.50000E+00  7.50000E+00
 3.75000E+00  7.50000E+00  1.12500E+01
 3.75000E+00  7.50000E+00  1.50000E+01
 3.75000E+00  7.50000E+00  2.00000E+01
 3.75000E+00  7.50000E+00  2.50000E+01
 3.75000E+00  1.12500E+01  0.00000E+00
 3.75000E+00  1.12500E+01  3.75000E+00
 3.75000E+00  1.12500E+01  7.50000E+00
 3.75000E+00  1.12500E+01  1.12500E+01
 3.75000E+00  1.12500E+01  1.50000E+01
 3.75000E+00  1.12500E+01  2.00000E+01
 3.75000E+00  1.12500E+01  2.50000E+01
 3.75000E+00  1.50000E+01  0.00000E+00
 3.75000E+00  1.50000E+01  3.75000E+00
 3.75000E+00  1.50000E+01  7.50000E+00
 3.75000E+00  1.50000E+01  1.12500E+01
 3.75000E+00  1.50000E+01  1.50000E+01
 3.75000E+00  1.50000E+01  2.00000E+01
 3.75000E+00  1.50000E+01  2.50000E+01
 3.75000E+00  1.75000E+01  0.00000E+00
 3.75000E+00  1.75000E+01  3.75000E+00
 3.75000E+00  1.75000E+01  7.50000E+00
 3.75000E+00  1.75000E+01  1.12500E+01
 3.75000E+00  1.75000E+01  1.50000E+01
 3.75000E+00  1.75000E+01  2.00000E+01
 3.75000E+00  1.75000E+01  2.50000E+01
 3.75000E+00  2.00000E+01  0.00000E+00
 3.75000E+00  2.00000E+01  3.75000E+00
 3.75000E+00  2.00000E+01  7.50000E+00
 3.75000E+00  2.00000E+01  1.12500E+01
 3.75000E+00  2.00000E+01  1.50000E+01
 3.75000E+00  2.00000E+01  2.00000E+01
 3.75000E+00  2.00000E+01  2.50000E+01
 3.75000E+00  2.25000E+01  0.00000E+00
 3.75000E+00  2.25000E+01  3.75000E+00
 3.75000E+00  2.25000E+01  7.50000E+00
 3.75000E+00  2.25000E+01  1.12500E+01
 3.75000E+00  2.25000E+01  1.50000E+01
 3.75000E+00  2.25000E+01  2.00000E+01
 3.75000E+00  2.25000E+01  2.50000E+01
 3.75000E+00  2.50000E+01  0.00000E+00
 3.75000E+00  2.50000E+01  3.75000E+00
 3.75000E+00  2.50000E+01  7.50000E+00
 3.75000E+00  2.50000E+01  1.12500E+01
 3.75000E+00  2.50000E+01  1.50000E+01
 3.75000E+00  2.50000E+01  2.00000E+01
 3.75000E+00  2.50000E+01  2.50000E+01
 7.50000E+00  0.00000E+00  0.00000E+00
 7.50000E+00  0.00000E+00  3.75000E+00
 7.50000E+00  0.00000E+00  7.50000E+00
 7.50000E+00  0.00000E+00  1.12500E+01
 7.50000E+00  0.00000E+00  1.50000E+01
 7.50000E+00  0.00000E+00  2.00000E+01
 7.50000E+00  0.00000E+00  2.50000E+01
 7.50000E+00  3.75000E+00  0.00000E+00
 7.50000E+00  3.75000E+00  3.75000E+00
 7.50000E+00  3.75000E+00  7.50000E+00
 7.50000E+00  3.75000E+00  1.12500E+01
 7.50000E+00  3.75000E+00  1.50000E+01
 7.50000E+00  3.75000E+00  2.00000E+01
 7.50000E+00  3.75000E+00  2.50000E+01
 7.50000E+00  7.50000E+00  0.00000E+00
 7.50000E+00  7.50000E+00  3.75000E+00
 7.50000E+00  7.50000E+00  7.50000E+00
 7.50000E+00  7.50000E+00  1.12500E+01
 7.50000E+00  7.50000E+00  1.50000E+01
 7.50000E+00  7.50000E+00  2.00000E+01
 7.50000E+00  7.50000E+00  2.50000E+01
 7.50000E+00  1.12500E+01  0.00000E+00
 7.50000E+00  1.12500E+01  3.75000E+00
 7.50000E+00  1.12500E+01  7.50000E+00
 7.50000E+00  1.12500E+01  1.12500E+01
 7.50000E+00  1.12500E+01  1.50000E+01
 7.50000E+00  1.12500E+01  2.00000E+01
 7.50000E+00  1.12500E+01  2.50000E+01
 7.50000E+00  1.50000E+01  0.00000E+00
 7.50000E+00  1.50000E+01  3.75000E+00
 7.50000E+00  1.50000E+01  7.50000E+00
 7.50000E+00  1.50000E+01  1.12500E+01
 7.50000E+00  1.50000E+01  1.50000E+01
 7.50000E+00  1.50000E+01  2.00000E+01
 7.50000E+00  1.50000E+01  2.50000E+01
 7.50000E+00  1.75000E+01  0.00000E+00
 7.50000E+00  1.75000E+01  3.75000E+00
 7.50000E+00  1.75000E+01  7.50000E+00
 7.50000E+00  1.75000E+01  1.12500E+01
 7.50000E+00  1.75000E+01  1.50000E+01
 7.50000E+00  1.75000E+01  2.00000E+01
 7.50000E+00  1.75000E+01  2.50000E+01
 7.50000E+00  2.00000E+01  0.00000E+00
 7.50000E+00  2.00000E+01  3.75000E+00
 7.50000E+00  2.00000E+01  7.50000E+00
 7.50000E+00  2.00000E+01  1.12500E+01
 7.50000E+00  2.00000E+01  1.50000E+01
 7.50000E+00  2.00000E+01  2.00000E+01
 7.50000E+00  2.00000E+01  2.50000E+01
 7.50000E+00  2.25000E+01  0.00000E+00
 7.50000E+00  2.25000E+01  3.75000E+00
 7.50000E+00  2.25000E+01  7.50000E+00
 7.50000E+00  2.25000E+01  1.12500E+01
 7.50000E+00  2.25000E+01  1.50000E+01
 7.50000E+00  2.25000E+01  2.00000E+01
 7.50000E+00  2.25000E+01  2.50000E+01
 7.50000E+00  2.50000E+01  0.00000E+00
 7.50000E+00  2.50000E+01  3.75000E+00
 7.50000E+00  2.50000E+01  7.50000E+00
 7.50000E+00  2.50000E+01  1.12500E+01
 7.50000E+00  2.50000E+01  1.50000E+01
 7.50000E+00  2.50000E+01  2.00000E+01
 7.50000E+00  2.50000E+01  2.50000E+01
 1.12500E+01  0.00000E+00  0.00000E+00
 1.12500E+01  0.00000E+00  3.75000E+00
 1.12500E+01  0.00000E+00  7.50000E+00
 1.12500E+01  0.00000E+00  1.12500E+01
 1.12500E+01  0.00000E+00  1.50000E+01
 1.12500E+01  0.00000E+00  2.00000E+01
 1.12500E+01  0.00000E+00  2.50000E+01
 1.12500E+01  3.75000E+00  0.00000E+00
 1.12500E+01  3.75000E+00  3.75000E+00
 1.12500E+01  3.75000E+00  7.50000E+00
 1.12500E+01  3.75000E+00  1.12500E+01
 1.12500E+01  3.75000E+00  1.50000E+01
 1.12500E+01  3.75000E+00  2.00000E+01
 1.12500E+01  3.75000E+00  2.50000E+01
 1.12500E+01  7.50000E+00  0.00000E+00
 1.12500E+01  7.50000E+00  3.75000E+00
 1.12500E+01  7.50000E+00  7.50000E+00
 1.12500E+01  7.50000E+00  1.12500E+01
 1.12500E+01  7.50000E+00  1.50000E+01
 1.12500E+01  7.50000E+00  2.00000E+01
 1.12500E+01  7.50000E+00  2.50000E+01
 1.12500E+01  1.12500E+01  0.00000E+00
 1.12500E+01  1.12500E+01  3.75000E+00
 1.12500E+01  1.12500E+01  7.50000E+00
 1.12500E+01  1.12500E+01  1.12500E+01
 1.12500E+01  1.12500E+01  1.50000E+01
 1.12500E+01  1.12500E+01  2.00000E+01
 1.12500E+01  1.12500E+01  2.50000E+01
 1.12500E+01  1.50000E+01  0.00000E+00
 1.12500E+01  1.50000E+01  3.75000E+00
 1.12500E+01  1.50000E+01  7.50000E+00
 1.12500E+01  1.50000E+01  1.12500E+01
 1.12500E+01  1.50000E+01  1.50000E+01
 1.12500E+01  1.50000E+01  2.00000E+01
 1.12500E+01  1.50000E+01  2.50000E+01
 1.12500E+01  1.75000E+01  0.00000E+00
 1.12500E+01  1.75000E+01  3.75000E+00
 1.12500E+01  1.75000E+01  7.50000E+00
 1.12500E+01  1.75000E+01  1.12500E+01
 1.12500E+01  1.75000E+01  1.50000E+01
 1.12500E+01  1.75000E+01  2.00000E+01
 1.12500E+01  1.75000E+01  2.50000E+01
 1.12500E+01  2.00000E+01  0.00000E+00
 1.12500E+01  2.00000E+01  3.75000E+00
 1.12500E+01  2.00000E+01  7.50000E+00
 1.12500E+01  2.00000E+01  1.12500E+01
 1.12500E+01  2.00000E+01  1.50000E+01
 1.12500E+01  2.00000E+01  2.00000E+01
 1.12500E+01  2.00000E+01  2.50000E+01
 1.12500E+01  2.25000E+01  0.00000E+00
 1.12500E+01  2.25000E+01  3.75000E+00
 1.12500E+01  2.25000E+01  7.50000E+00
 1.12500E+01  2.25000E+01  1.12500E+01
 1.12500E+01  2.25000E+01  1.50000E+01
 1.12500E+01  2.25000E+01  2.00000E+01
 1.12500E+01  2.25000E+01  2.50000E+01
 1.12500E+01  2.50000E+01  0.00000E+00
 1.12500E+01  2.50000E+01  3.75000E+00
 1.12500E+01  2.50000E+01  7.50000E+00
 1.12500E+01  2.50000E+01  1.12500E+01
 1.12500E+01  2.50000E+01  1.50000E+01
 1.12500E+01  2.50000E+01  2.00000E+01
 1.12500E+01  2.50000E+01  2.50000E+01
[...]
CELL_DATA           48
FIELD MeshInformation 2
Composition_Number 1           48 float
 1.00000E+00  1.00000E+00  1.00000E+00  1.00000E+00  1.00000E+00  1.00000E+00  1.00000E+00  1.00000E+00
 2.00000E+00  2.00000E+00  2.00000E+00
 3.00000E+00  3.00000E+00  3.00000E+00  3.00000E+00  3.00000E+00  3.00000E+00  3.00000E+00  3.00000E+00  3.00000E+00  3.00000E+00
 3.00000E+00  3.00000E+00  3.00000E+00  3.00000E+00  3.00000E+00  3.00000E+00  3.00000E+00  3.00000E+00  3.00000E+00  3.00000E+00
 3.00000E+00  3.00000E+00  3.00000E+00  3.00000E+00  3.00000E+00  3.00000E+00  3.00000E+00  3.00000E+00  3.00000E+00  3.00000E+00
 3.00000E+00  3.00000E+00  3.00000E+00  3.00000E+00  3.00000E+00  3.00000E+00  3.00000E+00
Region_Number 1           48 float
 1.00000E+00  1.00000E+00  1.00000E+00  1.00000E+00  1.00000E+00  1.00000E+00  1.00000E+00  1.00000E+00
 2.00000E+00  2.00000E+00  2.00000E+00
 3.00000E+00  3.00000E+00  3.00000E+00  3.00000E+00  3.00000E+00  3.00000E+00  3.00000E+00  3.00000E+00  3.00000E+00  3.00000E+00
 3.00000E+00  3.00000E+00  3.00000E+00  3.00000E+00  3.00000E+00  3.00000E+00  3.00000E+00  3.00000E+00  3.00000E+00  3.00000E+00
 3.00000E+00  3.00000E+00  3.00000E+00  3.00000E+00  3.00000E+00  3.00000E+00  3.00000E+00  3.00000E+00  3.00000E+00  3.00000E+00
 3.00000E+00  3.00000E+00  3.00000E+00  3.00000E+00  3.00000E+00  3.00000E+00  3.00000E+00



FIELD Neutronics_Edits            3
NumberOfReflectedTags                                            1           48 float
 3.00000E+00  2.00000E+00  2.00000E+00  1.00000E+00  2.00000E+00  1.00000E+00  1.00000E+00  0.00000E+00  2.00000E+00  1.00000E+00
 1.00000E+00  2.00000E+00  1.00000E+00  1.00000E+00  2.00000E+00  1.00000E+00  1.00000E+00  1.00000E+00  2.00000E+00  1.00000E+00
 1.00000E+00  1.00000E+00  1.00000E+00  0.00000E+00  0.00000E+00  1.00000E+00  0.00000E+00  0.00000E+00  0.00000E+00  1.00000E+00
 0.00000E+00  0.00000E+00  0.00000E+00  2.00000E+00  1.00000E+00  1.00000E+00  1.00000E+00  0.00000E+00  0.00000E+00  0.00000E+00
 1.00000E+00  0.00000E+00  0.00000E+00  0.00000E+00  1.00000E+00  0.00000E+00  0.00000E+00  0.00000E+00
NumberOfVacuumTags                                               1           48 float
 0.00000E+00  0.00000E+00  0.00000E+00  0.00000E+00  0.00000E+00  0.00000E+00  0.00000E+00  0.00000E+00  0.00000E+00  0.00000E+00
 1.00000E+00  1.00000E+00  0.00000E+00  1.00000E+00  0.00000E+00  0.00000E+00  0.00000E+00  1.00000E+00  1.00000E+00  1.00000E+00
 1.00000E+00  2.00000E+00  1.00000E+00  0.00000E+00  1.00000E+00  0.00000E+00  0.00000E+00  0.00000E+00  1.00000E+00  1.00000E+00
 1.00000E+00  1.00000E+00  2.00000E+00  1.00000E+00  1.00000E+00  2.00000E+00  1.00000E+00  1.00000E+00  1.00000E+00  2.00000E+00
 1.00000E+00  1.00000E+00  1.00000E+00  2.00000E+00  2.00000E+00  2.00000E+00  2.00000E+00  3.00000E+00
NumberOfSurfaceTags                                              1           48 float
 3.00000E+00  2.00000E+00  2.00000E+00  1.00000E+00  2.00000E+00  1.00000E+00  1.00000E+00  0.00000E+00  2.00000E+00  1.00000E+00
 2.00000E+00  3.00000E+00  1.00000E+00  2.00000E+00  2.00000E+00  1.00000E+00  1.00000E+00  2.00000E+00  3.00000E+00  2.00000E+00
 2.00000E+00  3.00000E+00  2.00000E+00  0.00000E+00  1.00000E+00  1.00000E+00  0.00000E+00  0.00000E+00  1.00000E+00  2.00000E+00
 1.00000E+00  1.00000E+00  2.00000E+00  3.00000E+00  2.00000E+00  3.00000E+00  2.00000E+00  1.00000E+00  1.00000E+00  2.00000E+00
 2.00000E+00  1.00000E+00  1.00000E+00  2.00000E+00  3.00000E+00  2.00000E+00  2.00000E+00  3.00000E+00

