# vtk DataFile Version 3.0
ANL NE devision neutronics export routine 08-2006
ASCII
DATASET UNSTRUCTURED_GRID
POINTS           45 float
 0.00000E+00  0.00000E+00  0.00000E+00
 1.02375E-01  0.00000E+00  0.00000E+00
 2.04750E-01  0.00000E+00  0.00000E+00
 3.07125E-01  0.00000E+00  0.00000E+00
 4.09500E-01  0.00000E+00  0.00000E+00
 4.74751E-01  0.00000E+00  0.00000E+00
 5.40003E-01  0.00000E+00  0.00000E+00
 5.85001E-01  0.00000E+00  0.00000E+00
 6.30000E-01  0.00000E+00  0.00000E+00
 7.23901E-02  7.23901E-02  0.00000E+00
 1.89164E-01  7.83544E-02  0.00000E+00
 2.91539E-01  7.83544E-02  0.00000E+00
 4.01632E-01  7.98895E-02  0.00000E+00
 4.65551E-01  6.98815E-02  0.00000E+00
 5.35383E-01  7.04845E-02  0.00000E+00
 5.75801E-01  6.98815E-02  0.00000E+00
 1.44780E-01  1.44780E-01  0.00000E+00
 2.61554E-01  1.50744E-01  0.00000E+00
 3.78329E-01  1.56709E-01  0.00000E+00
 4.49966E-01  1.48236E-01  0.00000E+00
 5.21602E-01  1.39763E-01  0.00000E+00
 6.30000E-01  1.05000E-01  0.00000E+00
 2.17170E-01  2.17170E-01  0.00000E+00
 3.40487E-01  2.27506E-01  0.00000E+00
 4.22992E-01  2.13355E-01  0.00000E+00
 4.98897E-01  2.06650E-01  0.00000E+00
 5.75801E-01  1.74881E-01  0.00000E+00
 2.89560E-01  2.89560E-01  0.00000E+00
 3.78608E-01  2.79781E-01  0.00000E+00
 4.67656E-01  2.70001E-01  0.00000E+00
 5.48828E-01  2.40001E-01  0.00000E+00
 6.30000E-01  2.10000E-01  0.00000E+00
 3.35700E-01  3.35700E-01  0.00000E+00
 4.28413E-01  3.28733E-01  0.00000E+00
 5.48828E-01  3.45001E-01  0.00000E+00
 6.30000E-01  3.15000E-01  0.00000E+00
 3.81840E-01  3.81840E-01  0.00000E+00
 5.05920E-01  4.00920E-01  0.00000E+00
 6.30000E-01  4.20000E-01  0.00000E+00
 4.43880E-01  4.43880E-01  0.00000E+00
 5.67960E-01  4.62960E-01  0.00000E+00
 5.05920E-01  5.05920E-01  0.00000E+00
 6.30000E-01  5.25000E-01  0.00000E+00
 5.67960E-01  5.67960E-01  0.00000E+00
 6.30000E-01  6.30000E-01  0.00000E+00

CELLS           16           64
           3           0           2          16
           3           2           4          18
           3          16           2          18
           3          16          18          27
           3           4           6          20
           3           4          20          18
           3          18          20          29
           3          27          18          29
           3          27          29          36
           3           6           8          20
           3           8          31          20
           3          20          31          29
           3          31          38          29
           3          29          38          36
           3          36          38          41
           3          38          44          41

CELL_TYPES           16
  5  5  5  5  5  5  5  5  5
  5  5  5  5  5  5  5

CELL_DATA           16
FIELD MeshInformation 2
Composition_Number 1           16 float
 1.00000E+00  1.00000E+00  1.00000E+00  1.00000E+00  1.00000E+00  1.00000E+00  1.00000E+00  1.00000E+00  1.00000E+00
 2.00000E+00  2.00000E+00  2.00000E+00  2.00000E+00  2.00000E+00  2.00000E+00  2.00000E+00
Region_Number 1           16 float
 1.00000E+00  1.00000E+00  1.00000E+00  1.00000E+00  1.00000E+00  1.00000E+00  1.00000E+00  1.00000E+00  1.00000E+00
 2.00000E+00  2.00000E+00  2.00000E+00  2.00000E+00  2.00000E+00  2.00000E+00  2.00000E+00



FIELD Neutronics_Edits            3
NumberOfReflectedTags                                            1           16 float
 2.00000E+00  1.00000E+00  0.00000E+00  1.00000E+00  1.00000E+00  0.00000E+00  0.00000E+00  0.00000E+00  1.00000E+00  1.00000E+00
 1.00000E+00  0.00000E+00  1.00000E+00  0.00000E+00  1.00000E+00  2.00000E+00
NumberOfVacuumTags                                               1           16 float
 0.00000E+00  0.00000E+00  0.00000E+00  0.00000E+00  0.00000E+00  0.00000E+00  0.00000E+00  0.00000E+00  0.00000E+00  0.00000E+00
 0.00000E+00  0.00000E+00  0.00000E+00  0.00000E+00  0.00000E+00  0.00000E+00
NumberOfSurfaceTags                                              1           16 float
 2.00000E+00  1.00000E+00  0.00000E+00  1.00000E+00  1.00000E+00  0.00000E+00  0.00000E+00  0.00000E+00  1.00000E+00  1.00000E+00
 1.00000E+00  0.00000E+00  1.00000E+00  0.00000E+00  1.00000E+00  2.00000E+00

