# vtk DataFile Version 3.0
ANL NE devision neutronics export routine 08-2006
ASCII
DATASET UNSTRUCTURED_GRID
POINTS          169 float
 0.00000E+00  0.00000E+00  0.00000E+00
 1.66667E+00  0.00000E+00  0.00000E+00
 1.66667E+00  1.66667E+00  0.00000E+00
 0.00000E+00  1.66667E+00  0.00000E+00
 1.66667E+00  3.33333E+00  0.00000E+00
 0.00000E+00  3.33333E+00  0.00000E+00
 1.66667E+00  5.00000E+00  0.00000E+00
 0.00000E+00  5.00000E+00  0.00000E+00
 1.66667E+00  6.66667E+00  0.00000E+00
 0.00000E+00  6.66667E+00  0.00000E+00
 1.66667E+00  8.33333E+00  0.00000E+00
 0.00000E+00  8.33333E+00  0.00000E+00
 1.66667E+00  1.00000E+01  0.00000E+00
 0.00000E+00  1.00000E+01  0.00000E+00
 1.66667E+00  1.16667E+01  0.00000E+00
 0.00000E+00  1.16667E+01  0.00000E+00
 1.66667E+00  1.33333E+01  0.00000E+00
 0.00000E+00  1.33333E+01  0.00000E+00
 1.66667E+00  1.50000E+01  0.00000E+00
 0.00000E+00  1.50000E+01  0.00000E+00
 1.66667E+00  1.66667E+01  0.00000E+00
 0.00000E+00  1.66667E+01  0.00000E+00
 1.66667E+00  1.83333E+01  0.00000E+00
 0.00000E+00  1.83333E+01  0.00000E+00
 1.66667E+00  2.00000E+01  0.00000E+00
 0.00000E+00  2.00000E+01  0.00000E+00
 3.33333E+00  0.00000E+00  0.00000E+00
 3.33333E+00  1.66667E+00  0.00000E+00
 3.33333E+00  3.33333E+00  0.00000E+00
 3.33333E+00  5.00000E+00  0.00000E+00
 3.33333E+00  6.66667E+00  0.00000E+00
 3.33333E+00  8.33333E+00  0.00000E+00
 3.33333E+00  1.00000E+01  0.00000E+00
 3.33333E+00  1.16667E+01  0.00000E+00
 3.33333E+00  1.33333E+01  0.00000E+00
 3.33333E+00  1.50000E+01  0.00000E+00
 3.33333E+00  1.66667E+01  0.00000E+00
 3.33333E+00  1.83333E+01  0.00000E+00
 3.33333E+00  2.00000E+01  0.00000E+00
 5.00000E+00  0.00000E+00  0.00000E+00
 5.00000E+00  1.66667E+00  0.00000E+00
 5.00000E+00  3.33333E+00  0.00000E+00
 5.00000E+00  5.00000E+00  0.00000E+00
 5.00000E+00  6.66667E+00  0.00000E+00
 5.00000E+00  8.33333E+00  0.00000E+00
 5.00000E+00  1.00000E+01  0.00000E+00
 5.00000E+00  1.16667E+01  0.00000E+00
 5.00000E+00  1.33333E+01  0.00000E+00
 5.00000E+00  1.50000E+01  0.00000E+00
 5.00000E+00  1.66667E+01  0.00000E+00
 5.00000E+00  1.83333E+01  0.00000E+00
 5.00000E+00  2.00000E+01  0.00000E+00
 6.66667E+00  0.00000E+00  0.00000E+00
 6.66667E+00  1.66667E+00  0.00000E+00
 6.66667E+00  3.33333E+00  0.00000E+00
 6.66667E+00  5.00000E+00  0.00000E+00
 6.66667E+00  6.66667E+00  0.00000E+00
 6.66667E+00  8.33333E+00  0.00000E+00
 6.66667E+00  1.00000E+01  0.00000E+00
 6.66667E+00  1.16667E+01  0.00000E+00
 6.66667E+00  1.33333E+01  0.00000E+00
 6.66667E+00  1.50000E+01  0.00000E+00
 6.66667E+00  1.66667E+01  0.00000E+00
 6.66667E+00  1.83333E+01  0.00000E+00
 6.66667E+00  2.00000E+01  0.00000E+00
 8.33333E+00  0.00000E+00  0.00000E+00
 8.33333E+00  1.66667E+00  0.00000E+00
 8.33333E+00  3.33333E+00  0.00000E+00
 8.33333E+00  5.00000E+00  0.00000E+00
 8.33333E+00  6.66667E+00  0.00000E+00
 8.33333E+00  8.33333E+00  0.00000E+00
 8.33333E+00  1.00000E+01  0.00000E+00
 8.33333E+00  1.16667E+01  0.00000E+00
 8.33333E+00  1.33333E+01  0.00000E+00
 8.33333E+00  1.50000E+01  0.00000E+00
 8.33333E+00  1.66667E+01  0.00000E+00
 8.33333E+00  1.83333E+01  0.00000E+00
 8.33333E+00  2.00000E+01  0.00000E+00
 1.00000E+01  0.00000E+00  0.00000E+00
 1.00000E+01  1.66667E+00  0.00000E+00
 1.00000E+01  3.33333E+00  0.00000E+00
 1.00000E+01  5.00000E+00  0.00000E+00
 1.00000E+01  6.66667E+00  0.00000E+00
 1.00000E+01  8.33333E+00  0.00000E+00
 1.00000E+01  1.00000E+01  0.00000E+00
 1.00000E+01  1.16667E+01  0.00000E+00
 1.00000E+01  1.33333E+01  0.00000E+00
 1.00000E+01  1.50000E+01  0.00000E+00
 1.00000E+01  1.66667E+01  0.00000E+00
 1.00000E+01  1.83333E+01  0.00000E+00
 1.00000E+01  2.00000E+01  0.00000E+00
 1.16667E+01  0.00000E+00  0.00000E+00
 1.16667E+01  1.66667E+00  0.00000E+00
 1.16667E+01  3.33333E+00  0.00000E+00
 1.16667E+01  5.00000E+00  0.00000E+00
 1.16667E+01  6.66667E+00  0.00000E+00
 1.16667E+01  8.33333E+00  0.00000E+00
 1.16667E+01  1.00000E+01  0.00000E+00
 1.16667E+01  1.16667E+01  0.00000E+00
 1.16667E+01  1.33333E+01  0.00000E+00
 1.16667E+01  1.50000E+01  0.00000E+00
 1.16667E+01  1.66667E+01  0.00000E+00
 1.16667E+01  1.83333E+01  0.00000E+00
 1.16667E+01  2.00000E+01  0.00000E+00
 1.33333E+01  0.00000E+00  0.00000E+00
 1.33333E+01  1.66667E+00  0.00000E+00
 1.33333E+01  3.33333E+00  0.00000E+00
 1.33333E+01  5.00000E+00  0.00000E+00
 1.33333E+01  6.66667E+00  0.00000E+00
 1.33333E+01  8.33333E+00  0.00000E+00
 1.33333E+01  1.00000E+01  0.00000E+00
 1.33333E+01  1.16667E+01  0.00000E+00
 1.33333E+01  1.33333E+01  0.00000E+00
 1.33333E+01  1.50000E+01  0.00000E+00
 1.33333E+01  1.66667E+01  0.00000E+00
 1.33333E+01  1.83333E+01  0.00000E+00
 1.33333E+01  2.00000E+01  0.00000E+00
 1.50000E+01  0.00000E+00  0.00000E+00
 1.50000E+01  1.66667E+00  0.00000E+00
 1.50000E+01  3.33333E+00  0.00000E+00
 1.50000E+01  5.00000E+00  0.00000E+00
 1.50000E+01  6.66667E+00  0.00000E+00
 1.50000E+01  8.33333E+00  0.00000E+00
 1.50000E+01  1.00000E+01  0.00000E+00
 1.50000E+01  1.16667E+01  0.00000E+00
 1.50000E+01  1.33333E+01  0.00000E+00
 1.50000E+01  1.50000E+01  0.00000E+00
 1.50000E+01  1.66667E+01  0.00000E+00
 1.50000E+01  1.83333E+01  0.00000E+00
 1.50000E+01  2.00000E+01  0.00000E+00
 1.66667E+01  0.00000E+00  0.00000E+00
 1.66667E+01  1.66667E+00  0.00000E+00
 1.66667E+01  3.33333E+00  0.00000E+00
 1.66667E+01  5.00000E+00  0.00000E+00
 1.66667E+01  6.66667E+00  0.00000E+00
 1.66667E+01  8.33333E+00  0.00000E+00
 1.66667E+01  1.00000E+01  0.00000E+00
 1.66667E+01  1.16667E+01  0.00000E+00
 1.66667E+01  1.33333E+01  0.00000E+00
 1.66667E+01  1.50000E+01  0.00000E+00
 1.66667E+01  1.66667E+01  0.00000E+00
 1.66667E+01  1.83333E+01  0.00000E+00
 1.66667E+01  2.00000E+01  0.00000E+00
 1.83333E+01  0.00000E+00  0.00000E+00
 1.83333E+01  1.66667E+00  0.00000E+00
 1.83333E+01  3.33333E+00  0.00000E+00
 1.83333E+01  5.00000E+00  0.00000E+00
 1.83333E+01  6.66667E+00  0.00000E+00
 1.83333E+01  8.33333E+00  0.00000E+00
 1.83333E+01  1.00000E+01  0.00000E+00
 1.83333E+01  1.16667E+01  0.00000E+00
 1.83333E+01  1.33333E+01  0.00000E+00
 1.83333E+01  1.50000E+01  0.00000E+00
 1.83333E+01  1.66667E+01  0.00000E+00
 1.83333E+01  1.83333E+01  0.00000E+00
 1.83333E+01  2.00000E+01  0.00000E+00
 2.00000E+01  0.00000E+00  0.00000E+00
 2.00000E+01  1.66667E+00  0.00000E+00
 2.00000E+01  3.33333E+00  0.00000E+00
 2.00000E+01  5.00000E+00  0.00000E+00
 2.00000E+01  6.66667E+00  0.00000E+00
 2.00000E+01  8.33333E+00  0.00000E+00
 2.00000E+01  1.00000E+01  0.00000E+00
 2.00000E+01  1.16667E+01  0.00000E+00
 2.00000E+01  1.33333E+01  0.00000E+00
 2.00000E+01  1.50000E+01  0.00000E+00
 2.00000E+01  1.66667E+01  0.00000E+00
 2.00000E+01  1.83333E+01  0.00000E+00
 2.00000E+01  2.00000E+01  0.00000E+00

CELLS          144          720
           4           0           1           2           3
           4           3           2           4           5
           4           5           4           6           7
           4           1          26          27           2
           4           2          27          28           4
           4           4          28          29           6
           4          26          39          40          27
           4          27          40          41          28
           4          28          41          42          29
           4           7           6           8           9
           4           9           8          10          11
           4          11          10          12          13
           4           6          29          30           8
           4           8          30          31          10
           4          10          31          32          12
           4          29          42          43          30
           4          30          43          44          31
           4          31          44          45          32
           4          39          52          53          40
           4          40          53          54          41
           4          41          54          55          42
           4          42          55          56          43
           4          43          56          57          44
           4          44          57          58          45
           4          52          65          66          53
           4          53          66          67          54
           4          54          67          68          55
           4          55          68          69          56
           4          56          69          70          57
           4          57          70          71          58
           4          65          78          79          66
           4          66          79          80          67
           4          67          80          81          68
           4          68          81          82          69
           4          69          82          83          70
           4          70          83          84          71
           4          13          12          14          15
           4          15          14          16          17
           4          17          16          18          19
           4          19          18          20          21
           4          21          20          22          23
           4          23          22          24          25
           4          12          32          33          14
           4          14          33          34          16
           4          16          34          35          18
           4          18          35          36          20
           4          20          36          37          22
           4          22          37          38          24
           4          32          45          46          33
           4          33          46          47          34
           4          34          47          48          35
           4          35          48          49          36
           4          36          49          50          37
           4          37          50          51          38
           4          45          58          59          46
           4          46          59          60          47
           4          47          60          61          48
           4          48          61          62          49
           4          49          62          63          50
           4          50          63          64          51
           4          58          71          72          59
           4          59          72          73          60
           4          60          73          74          61
           4          61          74          75          62
           4          62          75          76          63
           4          63          76          77          64
           4          71          84          85          72
           4          72          85          86          73
           4          73          86          87          74
           4          74          87          88          75
           4          75          88          89          76
           4          76          89          90          77
           4          78          91          92          79
           4          79          92          93          80
           4          80          93          94          81
           4          81          94          95          82
           4          82          95          96          83
           4          83          96          97          84
           4          84          97          98          85
           4          85          98          99          86
           4          86          99         100          87
           4          87         100         101          88
           4          88         101         102          89
           4          89         102         103          90
           4          91         104         105          92
           4          92         105         106          93
           4          93         106         107          94
           4          94         107         108          95
           4          95         108         109          96
           4          96         109         110          97
           4          97         110         111          98
           4          98         111         112          99
           4          99         112         113         100
           4         100         113         114         101
           4         101         114         115         102
           4         102         115         116         103
           4         104         117         118         105
           4         105         118         119         106
           4         106         119         120         107
           4         107         120         121         108
           4         108         121         122         109
           4         109         122         123         110
           4         110         123         124         111
           4         111         124         125         112
           4         112         125         126         113
           4         113         126         127         114
           4         114         127         128         115
           4         115         128         129         116
           4         117         130         131         118
           4         118         131         132         119
           4         119         132         133         120
           4         120         133         134         121
           4         121         134         135         122
           4         122         135         136         123
           4         123         136         137         124
           4         124         137         138         125
           4         125         138         139         126
           4         126         139         140         127
           4         127         140         141         128
           4         128         141         142         129
           4         130         143         144         131
           4         131         144         145         132
           4         132         145         146         133
           4         133         146         147         134
           4         134         147         148         135
           4         135         148         149         136
           4         136         149         150         137
           4         137         150         151         138
           4         138         151         152         139
           4         139         152         153         140
           4         140         153         154         141
           4         141         154         155         142
           4         143         156         157         144
           4         144         157         158         145
           4         145         158         159         146
           4         146         159         160         147
           4         147         160         161         148
           4         148         161         162         149
           4         149         162         163         150
           4         150         163         164         151
           4         151         164         165         152
           4         152         165         166         153
           4         153         166         167         154
           4         154         167         168         155

CELL_TYPES          144
  9  9  9  9  9  9  9  9  9
  9  9  9  9  9  9  9  9  9  9  9  9  9  9  9  9  9  9  9  9  9  9  9  9  9  9  9
  9  9  9  9  9  9  9  9  9  9  9  9  9  9  9  9  9  9  9  9  9  9  9  9  9  9  9  9  9  9  9  9  9  9  9  9  9  9  9  9
  9  9  9  9  9  9  9  9  9  9  9  9  9  9  9  9  9  9  9  9  9  9  9  9  9  9  9  9  9  9  9  9  9  9  9  9  9  9  9  9
  9  9  9  9  9  9  9  9  9  9  9  9  9  9  9  9  9  9  9  9  9  9  9  9  9  9  9  9

CELL_DATA          144
FIELD MeshInformation 2
Composition_Number 1          144 float
 1.00000E+00  1.00000E+00  1.00000E+00  1.00000E+00  1.00000E+00  1.00000E+00  1.00000E+00  1.00000E+00  1.00000E+00
 2.00000E+00  2.00000E+00  2.00000E+00  2.00000E+00  2.00000E+00  2.00000E+00  2.00000E+00  2.00000E+00  2.00000E+00  2.00000E+00
 2.00000E+00  2.00000E+00  2.00000E+00  2.00000E+00  2.00000E+00  2.00000E+00  2.00000E+00  2.00000E+00  2.00000E+00  2.00000E+00
 2.00000E+00  2.00000E+00  2.00000E+00  2.00000E+00  2.00000E+00  2.00000E+00  2.00000E+00
 3.00000E+00  3.00000E+00  3.00000E+00  3.00000E+00  3.00000E+00  3.00000E+00  3.00000E+00  3.00000E+00  3.00000E+00  3.00000E+00
 3.00000E+00  3.00000E+00  3.00000E+00  3.00000E+00  3.00000E+00  3.00000E+00  3.00000E+00  3.00000E+00  3.00000E+00  3.00000E+00
 3.00000E+00  3.00000E+00  3.00000E+00  3.00000E+00  3.00000E+00  3.00000E+00  3.00000E+00  3.00000E+00  3.00000E+00  3.00000E+00
 3.00000E+00  3.00000E+00  3.00000E+00  3.00000E+00  3.00000E+00  3.00000E+00  3.00000E+00  3.00000E+00  3.00000E+00  3.00000E+00
 3.00000E+00  3.00000E+00  3.00000E+00  3.00000E+00  3.00000E+00  3.00000E+00  3.00000E+00  3.00000E+00  3.00000E+00  3.00000E+00
 3.00000E+00  3.00000E+00  3.00000E+00  3.00000E+00  3.00000E+00  3.00000E+00  3.00000E+00  3.00000E+00  3.00000E+00  3.00000E+00
 3.00000E+00  3.00000E+00  3.00000E+00  3.00000E+00  3.00000E+00  3.00000E+00  3.00000E+00  3.00000E+00  3.00000E+00  3.00000E+00
 3.00000E+00  3.00000E+00  3.00000E+00  3.00000E+00  3.00000E+00  3.00000E+00  3.00000E+00  3.00000E+00  3.00000E+00  3.00000E+00
 3.00000E+00  3.00000E+00  3.00000E+00  3.00000E+00  3.00000E+00  3.00000E+00  3.00000E+00  3.00000E+00  3.00000E+00  3.00000E+00
 3.00000E+00  3.00000E+00  3.00000E+00  3.00000E+00  3.00000E+00  3.00000E+00  3.00000E+00  3.00000E+00  3.00000E+00  3.00000E+00
 3.00000E+00  3.00000E+00  3.00000E+00  3.00000E+00  3.00000E+00  3.00000E+00  3.00000E+00  3.00000E+00
Region_Number 1          144 float
 1.00000E+00  1.00000E+00  1.00000E+00  1.00000E+00  1.00000E+00  1.00000E+00  1.00000E+00  1.00000E+00  1.00000E+00
 2.00000E+00  2.00000E+00  2.00000E+00  2.00000E+00  2.00000E+00  2.00000E+00  2.00000E+00  2.00000E+00  2.00000E+00  2.00000E+00
 2.00000E+00  2.00000E+00  2.00000E+00  2.00000E+00  2.00000E+00  2.00000E+00  2.00000E+00  2.00000E+00  2.00000E+00  2.00000E+00
 2.00000E+00  2.00000E+00  2.00000E+00  2.00000E+00  2.00000E+00  2.00000E+00  2.00000E+00
 3.00000E+00  3.00000E+00  3.00000E+00  3.00000E+00  3.00000E+00  3.00000E+00  3.00000E+00  3.00000E+00  3.00000E+00  3.00000E+00
 3.00000E+00  3.00000E+00  3.00000E+00  3.00000E+00  3.00000E+00  3.00000E+00  3.00000E+00  3.00000E+00  3.00000E+00  3.00000E+00
 3.00000E+00  3.00000E+00  3.00000E+00  3.00000E+00  3.00000E+00  3.00000E+00  3.00000E+00  3.00000E+00  3.00000E+00  3.00000E+00
 3.00000E+00  3.00000E+00  3.00000E+00  3.00000E+00  3.00000E+00  3.00000E+00  3.00000E+00  3.00000E+00  3.00000E+00  3.00000E+00
 3.00000E+00  3.00000E+00  3.00000E+00  3.00000E+00  3.00000E+00  3.00000E+00  3.00000E+00  3.00000E+00  3.00000E+00  3.00000E+00
 3.00000E+00  3.00000E+00  3.00000E+00  3.00000E+00  3.00000E+00  3.00000E+00  3.00000E+00  3.00000E+00  3.00000E+00  3.00000E+00
 3.00000E+00  3.00000E+00  3.00000E+00  3.00000E+00  3.00000E+00  3.00000E+00  3.00000E+00  3.00000E+00  3.00000E+00  3.00000E+00
 3.00000E+00  3.00000E+00  3.00000E+00  3.00000E+00  3.00000E+00  3.00000E+00  3.00000E+00  3.00000E+00  3.00000E+00  3.00000E+00
 3.00000E+00  3.00000E+00  3.00000E+00  3.00000E+00  3.00000E+00  3.00000E+00  3.00000E+00  3.00000E+00  3.00000E+00  3.00000E+00
 3.00000E+00  3.00000E+00  3.00000E+00  3.00000E+00  3.00000E+00  3.00000E+00  3.00000E+00  3.00000E+00  3.00000E+00  3.00000E+00
 3.00000E+00  3.00000E+00  3.00000E+00  3.00000E+00  3.00000E+00  3.00000E+00  3.00000E+00  3.00000E+00



FIELD Neutronics_Edits            3
NumberOfReflectedTags                                            1          144 float
 0.00000E+00  0.00000E+00  0.00000E+00  0.00000E+00  0.00000E+00  0.00000E+00  0.00000E+00  0.00000E+00  0.00000E+00  0.00000E+00
 0.00000E+00  0.00000E+00  0.00000E+00  0.00000E+00  0.00000E+00  0.00000E+00  0.00000E+00  0.00000E+00  0.00000E+00  0.00000E+00
 0.00000E+00  0.00000E+00  0.00000E+00  0.00000E+00  0.00000E+00  0.00000E+00  0.00000E+00  0.00000E+00  0.00000E+00  0.00000E+00
 0.00000E+00  0.00000E+00  0.00000E+00  0.00000E+00  0.00000E+00  0.00000E+00  0.00000E+00  0.00000E+00  0.00000E+00  0.00000E+00
 0.00000E+00  0.00000E+00  0.00000E+00  0.00000E+00  0.00000E+00  0.00000E+00  0.00000E+00  0.00000E+00  0.00000E+00  0.00000E+00
 0.00000E+00  0.00000E+00  0.00000E+00  0.00000E+00  0.00000E+00  0.00000E+00  0.00000E+00  0.00000E+00  0.00000E+00  0.00000E+00
 0.00000E+00  0.00000E+00  0.00000E+00  0.00000E+00  0.00000E+00  0.00000E+00  0.00000E+00  0.00000E+00  0.00000E+00  0.00000E+00
 0.00000E+00  0.00000E+00  0.00000E+00  0.00000E+00  0.00000E+00  0.00000E+00  0.00000E+00  0.00000E+00  0.00000E+00  0.00000E+00
 0.00000E+00  0.00000E+00  0.00000E+00  0.00000E+00  0.00000E+00  0.00000E+00  0.00000E+00  0.00000E+00  0.00000E+00  0.00000E+00
 0.00000E+00  0.00000E+00  0.00000E+00  0.00000E+00  0.00000E+00  0.00000E+00  0.00000E+00  0.00000E+00  0.00000E+00  0.00000E+00
 0.00000E+00  0.00000E+00  0.00000E+00  0.00000E+00  0.00000E+00  0.00000E+00  0.00000E+00  0.00000E+00  0.00000E+00  0.00000E+00
 0.00000E+00  0.00000E+00  0.00000E+00  0.00000E+00  0.00000E+00  0.00000E+00  0.00000E+00  0.00000E+00  0.00000E+00  0.00000E+00
 0.00000E+00  0.00000E+00  0.00000E+00  0.00000E+00  0.00000E+00  0.00000E+00  0.00000E+00  0.00000E+00  0.00000E+00  0.00000E+00
 0.00000E+00  0.00000E+00  0.00000E+00  0.00000E+00  0.00000E+00  0.00000E+00  0.00000E+00  0.00000E+00  0.00000E+00  0.00000E+00
 0.00000E+00  0.00000E+00  0.00000E+00  0.00000E+00
NumberOfVacuumTags                                               1          144 float
 2.00000E+00  1.00000E+00  1.00000E+00  1.00000E+00  0.00000E+00  0.00000E+00  1.00000E+00  0.00000E+00  0.00000E+00  1.00000E+00
 1.00000E+00  1.00000E+00  0.00000E+00  0.00000E+00  0.00000E+00  0.00000E+00  0.00000E+00  0.00000E+00  1.00000E+00  0.00000E+00
 0.00000E+00  0.00000E+00  0.00000E+00  0.00000E+00  1.00000E+00  0.00000E+00  0.00000E+00  0.00000E+00  0.00000E+00  0.00000E+00
 1.00000E+00  0.00000E+00  0.00000E+00  0.00000E+00  0.00000E+00  0.00000E+00  1.00000E+00  1.00000E+00  1.00000E+00  1.00000E+00
 1.00000E+00  2.00000E+00  0.00000E+00  0.00000E+00  0.00000E+00  0.00000E+00  0.00000E+00  1.00000E+00  0.00000E+00  0.00000E+00
 0.00000E+00  0.00000E+00  0.00000E+00  1.00000E+00  0.00000E+00  0.00000E+00  0.00000E+00  0.00000E+00  0.00000E+00  1.00000E+00
 0.00000E+00  0.00000E+00  0.00000E+00  0.00000E+00  0.00000E+00  1.00000E+00  0.00000E+00  0.00000E+00  0.00000E+00  0.00000E+00
 0.00000E+00  1.00000E+00  1.00000E+00  0.00000E+00  0.00000E+00  0.00000E+00  0.00000E+00  0.00000E+00  0.00000E+00  0.00000E+00
 0.00000E+00  0.00000E+00  0.00000E+00  1.00000E+00  1.00000E+00  0.00000E+00  0.00000E+00  0.00000E+00  0.00000E+00  0.00000E+00
 0.00000E+00  0.00000E+00  0.00000E+00  0.00000E+00  0.00000E+00  1.00000E+00  1.00000E+00  0.00000E+00  0.00000E+00  0.00000E+00
 0.00000E+00  0.00000E+00  0.00000E+00  0.00000E+00  0.00000E+00  0.00000E+00  0.00000E+00  1.00000E+00  1.00000E+00  0.00000E+00
 0.00000E+00  0.00000E+00  0.00000E+00  0.00000E+00  0.00000E+00  0.00000E+00  0.00000E+00  0.00000E+00  0.00000E+00  1.00000E+00
 1.00000E+00  0.00000E+00  0.00000E+00  0.00000E+00  0.00000E+00  0.00000E+00  0.00000E+00  0.00000E+00  0.00000E+00  0.00000E+00
 0.00000E+00  1.00000E+00  2.00000E+00  1.00000E+00  1.00000E+00  1.00000E+00  1.00000E+00  1.00000E+00  1.00000E+00  1.00000E+00
 1.00000E+00  1.00000E+00  1.00000E+00  2.00000E+00
NumberOfSurfaceTags                                              1          144 float
 2.00000E+00  1.00000E+00  1.00000E+00  1.00000E+00  0.00000E+00  0.00000E+00  1.00000E+00  0.00000E+00  0.00000E+00  1.00000E+00
 1.00000E+00  1.00000E+00  0.00000E+00  0.00000E+00  0.00000E+00  0.00000E+00  0.00000E+00  0.00000E+00  1.00000E+00  0.00000E+00
 0.00000E+00  0.00000E+00  0.00000E+00  0.00000E+00  1.00000E+00  0.00000E+00  0.00000E+00  0.00000E+00  0.00000E+00  0.00000E+00
 1.00000E+00  0.00000E+00  0.00000E+00  0.00000E+00  0.00000E+00  0.00000E+00  1.00000E+00  1.00000E+00  1.00000E+00  1.00000E+00
 1.00000E+00  2.00000E+00  0.00000E+00  0.00000E+00  0.00000E+00  0.00000E+00  0.00000E+00  1.00000E+00  0.00000E+00  0.00000E+00
 0.00000E+00  0.00000E+00  0.00000E+00  1.00000E+00  0.00000E+00  0.00000E+00  0.00000E+00  0.00000E+00  0.00000E+00  1.00000E+00
 0.00000E+00  0.00000E+00  0.00000E+00  0.00000E+00  0.00000E+00  1.00000E+00  0.00000E+00  0.00000E+00  0.00000E+00  0.00000E+00
 0.00000E+00  1.00000E+00  1.00000E+00  0.00000E+00  0.00000E+00  0.00000E+00  0.00000E+00  0.00000E+00  0.00000E+00  0.00000E+00
 0.00000E+00  0.00000E+00  0.00000E+00  1.00000E+00  1.00000E+00  0.00000E+00  0.00000E+00  0.00000E+00  0.00000E+00  0.00000E+00
 0.00000E+00  0.00000E+00  0.00000E+00  0.00000E+00  0.00000E+00  1.00000E+00  1.00000E+00  0.00000E+00  0.00000E+00  0.00000E+00
 0.00000E+00  0.00000E+00  0.00000E+00  0.00000E+00  0.00000E+00  0.00000E+00  0.00000E+00  1.00000E+00  1.00000E+00  0.00000E+00
 0.00000E+00  0.00000E+00  0.00000E+00  0.00000E+00  0.00000E+00  0.00000E+00  0.00000E+00  0.00000E+00  0.00000E+00  1.00000E+00
 1.00000E+00  0.00000E+00  0.00000E+00  0.00000E+00  0.00000E+00  0.00000E+00  0.00000E+00  0.00000E+00  0.00000E+00  0.00000E+00
 0.00000E+00  1.00000E+00  2.00000E+00  1.00000E+00  1.00000E+00  1.00000E+00  1.00000E+00  1.00000E+00  1.00000E+00  1.00000E+00
 1.00000E+00  1.00000E+00  1.00000E+00  2.00000E+00

